                         Program Version 5.0.4 -  RELEASE  -
|  1> !uks  b3lyp cc-pvtz TightSCF NoFrozenCore KeepDens
|  2> %MaxCore 1024
|  3> %pal
|  4> nprocs 8
|  5> end
|  6> %elprop
|  7> Polar 1
|  8> dipole true
|  9> quadrupole true
| 10> end
| 12> * xyzfile 0 3 o.xyz
| 15>                          ****END OF INPUT****

CARTESIAN COORDINATES (ANGSTROEM)
---------------------------------
  O     27.407000    1.273000   27.856001

 Total Charge           Charge          ....    0
 Multiplicity           Mult            ....    3
 Number of Electrons    NEL             ....    8
 Basis Dimension        Dim             ....   30

ORBITAL ENERGIES
----------------
                 SPIN UP ORBITALS
  NO   OCC          E(Eh)            E(eV)
   0   1.0000     -19.268274      -524.3164
   1   1.0000      -1.013018       -27.5656
   2   1.0000      -0.453996       -12.3539
   3   1.0000      -0.453996       -12.3539
   4   1.0000      -0.378492       -10.2993
   5   0.0000       0.520196        14.1553
   6   0.0000       0.520196        14.1553
   7   0.0000       0.554287        15.0829
   8   0.0000       0.675589        18.3837
   9   0.0000       1.367404        37.2090

                 SPIN DOWN ORBITALS
  NO   OCC          E(Eh)            E(eV)
   0   1.0000     -19.216821      -522.9163
   1   1.0000      -0.854264       -23.2457
   2   1.0000      -0.328046        -8.9266
   3   0.0000      -0.173926        -4.7328
   4   0.0000      -0.173926        -4.7328
   5   0.0000       0.573447        15.6043
   6   0.0000       0.601428        16.3657
   7   0.0000       0.601429        16.3657

MULLIKEN ATOMIC CHARGES AND SPIN POPULATIONS
--------------------------------------------
   0 O :   -0.000000    2.000000
Sum of atomic charges         :   -0.0000000

LOEWDIN ATOMIC CHARGES AND SPIN POPULATIONS
-------------------------------------------
   0 O :   -0.000000    2.000000

FINAL SINGLE POINT ENERGY       -75.062457416586

DIPOLE MOMENT
-------------
                                X             Y             Z
Electronic contribution:     -0.00000      -0.00000       0.00000
Nuclear contribution   :      0.00000       0.00000       0.00000
                        -----------------------------------------
Total Dipole Moment    :     -0.00000      -0.00000       0.00000
                        -----------------------------------------
Magnitude (a.u.)       :      0.00000
Magnitude (Debye)      :      0.00000

Rotational constants in cm-1:     0.000000     0.000000     0.000000
Rotational constants in MHz :     0.000000     0.000000     0.000000

                             ****ORCA TERMINATED NORMALLY****
TOTAL RUN TIME: 0 days 0 hours 0 minutes 2 seconds 905 msec
