                         Program Version 5.0.4 -  RELEASE  -
|  1> !uks  b3lyp cc-pvtz TightSCF NoFrozenCore KeepDens
|  2> %MaxCore 1024
|  3> %pal
|  4> nprocs 8
|  5> end
|  6> %elprop
|  7> Polar 1
|  8> dipole true
|  9> quadrupole true
| 10> end
| 12> * xyzfile 0 4 n.xyz
| 15>                          ****END OF INPUT****

CARTESIAN COORDINATES (ANGSTROEM)
---------------------------------
  N     27.407000    1.273000   27.856001

 Total Charge           Charge          ....    0
 Multiplicity           Mult            ....    4
 Number of Electrons    NEL             ....    7
 Basis Dimension        Dim             ....   30

ORBITAL ENERGIES
----------------
                 SPIN UP ORBITALS
  NO   OCC          E(Eh)            E(eV)
   0   1.0000     -14.430221      -392.6663
   1   1.0000      -0.806109       -21.9353
   2   1.0000      -0.351315        -9.5598
   3   1.0000      -0.351314        -9.5598
   4   1.0000      -0.351314        -9.5598
   5   0.0000       0.426643        11.6095
   6   0.0000       0.426643        11.6096
   7   0.0000       0.426643        11.6096
   8   0.0000       0.487736        13.2720
   9   0.0000       0.986195        26.8357

                 SPIN DOWN ORBITALS
  NO   OCC          E(Eh)            E(eV)
   0   1.0000     -14.371599      -391.0711
   1   1.0000      -0.610017       -16.5994
   2   0.0000      -0.102446        -2.7877
   3   0.0000      -0.102445        -2.7877
   4   0.0000      -0.102444        -2.7876
   5   0.0000       0.507211        13.8019
   6   0.0000       0.507211        13.8019

MULLIKEN ATOMIC CHARGES AND SPIN POPULATIONS
--------------------------------------------
   0 N :   -0.000000    3.000000
Sum of atomic charges         :   -0.0000000

LOEWDIN ATOMIC CHARGES AND SPIN POPULATIONS
-------------------------------------------
   0 N :   -0.000000    3.000000

FINAL SINGLE POINT ENERGY       -54.576800314627

DIPOLE MOMENT
-------------
                                X             Y             Z
Electronic contribution:      0.00000      -0.00000       0.00000
Nuclear contribution   :      0.00000       0.00000       0.00000
                        -----------------------------------------
Total Dipole Moment    :      0.00000      -0.00000       0.00000
                        -----------------------------------------
Magnitude (a.u.)       :      0.00000
Magnitude (Debye)      :      0.00000

Rotational constants in cm-1:     0.000000     0.000000     0.000000
Rotational constants in MHz :     0.000000     0.000000     0.000000

                             ****ORCA TERMINATED NORMALLY****
TOTAL RUN TIME: 0 days 0 hours 0 minutes 2 seconds 782 msec
