                         Program Version 5.0.4 -  RELEASE  -
|  1> !uks  b3lyp cc-pvtz TightSCF NoFrozenCore KeepDens
|  2> %MaxCore 1024
|  3> %pal
|  4> nprocs 8
|  5> end
|  6> %elprop
|  7> Polar 1
|  8> dipole true
|  9> quadrupole true
| 10> end
| 12> * xyzfile 0 3 c.xyz
| 15>                          ****END OF INPUT****

CARTESIAN COORDINATES (ANGSTROEM)
---------------------------------
  C     27.407000    1.273000   27.856001

 Total Charge           Charge          ....    0
 Multiplicity           Mult            ....    3
 Number of Electrons    NEL             ....    6
 Basis Dimension        Dim             ....   30

ORBITAL ENERGIES
----------------
                 SPIN UP ORBITALS
  NO   OCC          E(Eh)            E(eV)
   0   1.0000     -10.303592      -280.3750
   1   1.0000      -0.584707       -15.9107
   2   1.0000      -0.263657        -7.1745
   3   1.0000      -0.263656        -7.1745
   4   0.0000      -0.150876        -4.1055
   5   0.0000       0.292961         7.9719
   6   0.0000       0.292961         7.9719
   7   0.0000       0.311514         8.4767
   8   0.0000       0.346305         9.4234

                 SPIN DOWN ORBITALS
  NO   OCC          E(Eh)            E(eV)
   0   1.0000     -10.274329      -279.5787
   1   1.0000      -0.474959       -12.9243
   2   0.0000      -0.121549        -3.3075
   3   0.0000      -0.074611        -2.0303
   4   0.0000      -0.074611        -2.0303
   5   0.0000       0.324246         8.8232
   6   0.0000       0.353120         9.6089

MULLIKEN ATOMIC CHARGES AND SPIN POPULATIONS
--------------------------------------------
   0 C :   -0.000000    2.000000
Sum of atomic charges         :   -0.0000000

LOEWDIN ATOMIC CHARGES AND SPIN POPULATIONS
-------------------------------------------
   0 C :   -0.000000    2.000000

FINAL SINGLE POINT ENERGY       -37.837239639548

DIPOLE MOMENT
-------------
                                X             Y             Z
Electronic contribution:      0.00000       0.00000      -0.00000
Nuclear contribution   :      0.00000      -0.00000      -0.00000
                        -----------------------------------------
Total Dipole Moment    :      0.00000       0.00000      -0.00000
                        -----------------------------------------
Magnitude (a.u.)       :      0.00000
Magnitude (Debye)      :      0.00000

Rotational constants in cm-1:     0.000000     0.000000     0.000000
Rotational constants in MHz :     0.000000     0.000000     0.000000

                             ****ORCA TERMINATED NORMALLY****
TOTAL RUN TIME: 0 days 0 hours 0 minutes 3 seconds 127 msec
