                         Program Version 5.0.4 -  RELEASE  -
|  1> !uks  b3lyp cc-pvtz TightSCF NoFrozenCore KeepDens
|  2> %MaxCore 1024
|  3> %pal
|  4> nprocs 8
|  5> end
|  6> %elprop
|  7> Polar 1
|  8> dipole true
|  9> quadrupole true
| 10> end
| 12> * xyzfile 0 3 s.xyz
| 15>                          ****END OF INPUT****

CARTESIAN COORDINATES (ANGSTROEM)
---------------------------------
  S     27.407000    1.273000   27.856001

 Total Charge           Charge          ....    0
 Multiplicity           Mult            ....    3
 Number of Electrons    NEL             ....   16
 Basis Dimension        Dim             ....   34

ORBITAL ENERGIES
----------------
                 SPIN UP ORBITALS
  NO   OCC          E(Eh)            E(eV)
   0   1.0000     -88.944651     -2420.3070
   1   1.0000      -7.991989      -217.4731
   2   1.0000      -5.961416      -162.2184
   3   1.0000      -5.961416      -162.2184
   4   1.0000      -5.942857      -161.7134
   5   1.0000      -0.722219       -19.6526
   6   1.0000      -0.331668        -9.0251
   7   1.0000      -0.331668        -9.0251
   8   1.0000      -0.284176        -7.7328
   9   0.0000       0.270206         7.3527
  10   0.0000       0.270206         7.3527
  11   0.0000       0.291381         7.9289
  12   0.0000       0.304377         8.2825
  13   0.0000       0.304377         8.2825

                 SPIN DOWN ORBITALS
  NO   OCC          E(Eh)            E(eV)
   0   1.0000     -88.933703     -2420.0091
   1   1.0000      -7.980981      -217.1735
   2   1.0000      -5.939697      -161.6274
   3   1.0000      -5.939697      -161.6274
   4   1.0000      -5.936468      -161.5395
   5   1.0000      -0.628832       -17.1114
   6   1.0000      -0.259158        -7.0520
   7   0.0000      -0.173676        -4.7260
   8   0.0000      -0.173675        -4.7260
   9   0.0000       0.299267         8.1435
  10   0.0000       0.307730         8.3738
  11   0.0000       0.307731         8.3738

MULLIKEN ATOMIC CHARGES AND SPIN POPULATIONS
--------------------------------------------
   0 S :    0.000000    2.000000
Sum of atomic charges         :    0.0000000

LOEWDIN ATOMIC CHARGES AND SPIN POPULATIONS
-------------------------------------------
   0 S :    0.000000    2.000000

FINAL SINGLE POINT ENERGY      -398.077775682438

DIPOLE MOMENT
-------------
                                X             Y             Z
Electronic contribution:     -0.00000      -0.00000      -0.00000
Nuclear contribution   :      0.00000       0.00000       0.00000
                        -----------------------------------------
Total Dipole Moment    :     -0.00000      -0.00000      -0.00000
                        -----------------------------------------
Magnitude (a.u.)       :      0.00000
Magnitude (Debye)      :      0.00000

Rotational constants in cm-1:     0.000000     0.000000     0.000000
Rotational constants in MHz :     0.000000     0.000000     0.000000

                             ****ORCA TERMINATED NORMALLY****
TOTAL RUN TIME: 0 days 0 hours 0 minutes 3 seconds 91 msec
